
#(C) 2021 by FIZ Karlsruhe - Leibniz Institute for Information Infrastructure.  All rights reserved.
data_246319-ICSD
_database_code_ICSD 246319
_audit_creation_date 2009-08-01
_audit_update_record 2013-02-01
_chemical_name_common 'Yttrium trideuteride'
_chemical_formula_structural 'Y D3'
_chemical_formula_sum 'D3 Y1'
_chemical_name_structure_type LaF3(P63cm)#Cu3P
_exptl_crystal_density_diffrn 4.11
_diffrn_ambient_temperature 295.
_citation_title

;
The nature of deuterium arrangements in Y D3 and other rare-earth
trideuterides
;
loop_
_citation_id
_citation_journal_full
_citation_year
_citation_journal_volume
_citation_page_first
_citation_page_last
_citation_journal_id_ASTM
primary 'Zeitschrift fuer Kristallographie' 2008 223 697 705 ZEKRDZ
loop_
_citation_author_citation_id
_citation_author_name
primary 'Udovic, T.J.'
primary 'Huang Qingzhen'
primary 'Santoro, A.'
primary 'Rush, J.J.'
_cell_length_a 6.3441(2)
_cell_length_b 6.3441(2)
_cell_length_c 6.5998(2)
_cell_angle_alpha 90.
_cell_angle_beta 90.
_cell_angle_gamma 120.
_cell_volume 230.04
_cell_formula_units_Z 6
_space_group_name_H-M_alt 'P 63 c m'
_space_group_IT_number 185
loop_
_space_group_symop_id
_space_group_symop_operation_xyz
1 'x, x-y, z+1/2'
2 '-x+y, y, z+1/2'
3 '-y, -x, z+1/2'
4 'x-y, x, z+1/2'
5 'y, -x+y, z+1/2'
6 '-x, -y, z+1/2'
7 '-x, -x+y, z'
8 'x-y, -y, z'
9 'y, x, z'
10 '-x+y, -x, z'
11 '-y, x-y, z'
12 'x, y, z'
loop_
_atom_type_symbol
_atom_type_oxidation_number
Y3+ 3
D1- -1
loop_
_atom_site_label
_atom_site_type_symbol
_atom_site_symmetry_multiplicity
_atom_site_Wyckoff_symbol
_atom_site_fract_x
_atom_site_fract_y
_atom_site_fract_z
_atom_site_B_iso_or_equiv
_atom_site_occupancy
Y1 Y3+ 6 c 0.6717(8) 0 0.25 0.34(2) 1.
D1 D1- 6 c 0.3055(8) 0 0.090(1) . 1.
D2 D1- 6 c 0.3601(7) 0 0.409(1) . 1.
D3 D1- 2 a 0 0 0.317(2) . 1.
D4 D1- 4 b 0.3333 0.6667 0.207(1) . 1.
loop_
_atom_site_aniso_label
_atom_site_aniso_type_symbol
_atom_site_aniso_B_11
_atom_site_aniso_B_22
_atom_site_aniso_B_33
_atom_site_aniso_B_12
_atom_site_aniso_B_13
_atom_site_aniso_B_23
D1 D1- 1.6(2) 0.4(1) 1.4(2) 0.21(7) 0.1(1) 0
D2 D1- 1.9(1) 2.7(2) 0.4(2) 1.3(1) 0.2(1) 0
#End of TTdata_246319-ICSD